version 2
run deterministic-0-20200123-11:49:46-28628
attr configname deterministic
attr datetime 20200123-11:49:46
attr experiment deterministic
attr inifile omnetpp.ini
attr iterationvars ""
attr iterationvarsf ""
attr measurement ""
attr network Airport
attr processid 28628
attr repetition 0
attr replication #0
attr resultdir results
attr runnumber 0
attr seedset 0

vector 0 Airport.parkingArea numPlane:vector ETV
attr "" ""
attr source numPlane
vector 1 Airport.controlTower LandingQueueTime:vector ETV
attr "" ""
attr source LandingQueueTime
0	1	30	0
0	2	60	0
0	3	90	0
0	4	120	0
0	5	150	0
0	6	180	0
0	7	210	0
0	8	240	0
0	9	270	0
0	10	300	0
0	11	330	0
0	12	360	0
0	13	390	0
0	14	420	0
0	15	450	0
0	16	480	0
0	17	510	0
0	18	540	0
0	19	570	0
0	20	600	0
0	21	630	0
0	22	660	0
0	23	690	0
0	24	720	0
0	25	750	0
0	26	780	0
0	27	810	0
0	28	840	0
0	29	870	0
0	30	900	0
0	31	930	0
0	32	960	0
0	33	990	0
0	36	1020	0
0	37	1050	0
0	38	1080	0
0	39	1110	0
0	40	1140	0
0	41	1170	0
0	42	1200	0
0	43	1230	0
0	44	1260	0
0	45	1290	0
0	46	1320	0
1	35	1000	0
0	50	1350	1
0	51	1380	1
0	52	1410	1
0	53	1440	1
0	54	1470	1
0	55	1500	1
0	56	1530	1
0	57	1560	1
0	58	1590	1
0	59	1620	1
0	60	1650	1
0	61	1680	1
0	62	1710	1
0	63	1740	1
0	64	1770	1
0	65	1800	1
0	66	1830	1
0	67	1860	1
0	68	1890	1
0	69	1920	1
0	70	1950	1
0	71	1980	1
0	74	2010	1
0	75	2040	1
0	76	2070	1
0	77	2100	1
0	78	2130	1
0	79	2160	1
0	80	2190	1
0	81	2220	1
0	82	2250	1
0	83	2280	1
0	84	2310	1
0	85	2340	1
0	86	2370	1
0	87	2400	1
0	88	2430	1
0	89	2460	1
0	90	2490	1
0	94	2520	2
0	95	2550	2
0	96	2580	2
0	97	2610	2
0	98	2640	2
0	99	2670	2
0	100	2700	2
0	101	2730	2
0	102	2760	2
0	103	2790	2
0	104	2820	2
0	105	2850	2
0	106	2880	2
0	107	2910	2
0	108	2940	2
0	109	2970	2
0	111	3000	2
0	113	3030	2
0	114	3060	2
0	115	3090	2
0	116	3120	2
0	117	3150	2
0	118	3180	2
0	119	3210	2
0	120	3240	2
0	121	3270	2
0	122	3300	2
0	126	3330	3
0	127	3360	3
0	128	3390	3
0	129	3420	3
0	130	3450	3
0	131	3480	3
0	132	3510	3
0	133	3540	3
0	134	3570	3
0	135	3600	3
0	136	3630	3
0	137	3660	3
0	138	3690	3
0	139	3720	3
0	140	3750	3
0	141	3780	3
0	142	3810	3
0	143	3840	3
0	144	3870	3
0	145	3900	3
0	146	3930	3
0	147	3960	3
0	148	3990	3
0	151	4020	3
0	152	4050	3
0	153	4080	3
1	73	2000	0
1	112	3000	0
1	150	4000	0

